read using pysimm.system.read_mol

54 atoms
53 bonds
102 angles
145 dihedrals
1 impropers

3 atom types
5 bond types
9 angle types
7 dihedral types
1 improper types

-21.408100 21.256100 xlo xhi
-11.089700 11.164300 ylo yhi
-11.530100 11.063700 zlo zhi

Masses

   1	12.01	# c3
   2	12.01	# c2
   3	1.008	# hc

Pair Coeffs

   1	0.1078	3.397709531243626	# c3
   2	0.0988	3.3152123099438304	# c2
   3	0.0208	2.600176998764394	# hc

Bond Coeffs

   1	393.86	1.087	# c2,hc
   2	481.83	1.334	# c2,c2
   3	255.56	1.51	# c2,c3
   4	375.92	1.097	# c3,hc
   5	232.52	1.538	# c3,c3

Angle Coeffs

   1	50.527	119.7	# c2,c2,hc
   2	46.816	109.8	# c3,c3,hc
   3	47.475	110.36	# c2,c3,hc
   4	38.96	107.58	# hc,c3,hc
   5	64.888	111.51	# c3,c3,c3
   6	45.572	120.0	# c3,c2,hc
   7	37.394	118.92	# hc,c2,hc
   8	65.459	111.56	# c2,c3,c3
   9	66.132	123.63	# c2,c2,c3

Dihedral Coeffs

   1	1	6.65	2	180	# X,c2,c2,X
   2	1	0.15555555555555556	3	0	# X,c3,c3,X
   3	3	0.13	3	0	0.29	2	180	0.11	1	0	# c3,c3,c3,c3
   4	1	0.0	2	0	# X,c2,c3,X
   5	2	0.08	3	0	0.08	3	0	# hc,c3,c3,c3
   6	2	0.36	3	180	1.47	1	0	# hc,c3,c2,c2
   7	1	0.12	3	0	# hc,c3,c3,hc

Improper Coeffs

   1	1.1	-1	2	# c2,c2,c3,hc

Atoms

   1	1	2	0	10.3728	-0.2328	-0.7363
   2	1	2	0	9.4507	-0.359	0.1856
   3	1	1	0	8.2181	0.5069	0.142
   4	1	1	0	6.9713	-0.3797	0.1542
   5	1	1	0	5.7198	0.4994	0.1099
   6	1	1	0	4.473	-0.3872	0.122
   7	1	1	0	3.2216	0.4919	0.0777
   8	1	1	0	1.9747	-0.3948	0.0899
   9	1	1	0	0.7233	0.4844	0.0456
  10	1	1	0	-0.5235	-0.4023	0.0577
  11	1	1	0	-1.7749	0.4769	0.0134
  12	1	1	0	-3.0218	-0.4098	0.0256
  13	1	1	0	-4.2732	0.4694	-0.0187
  14	1	1	0	-5.52	-0.4173	-0.0066
  15	1	1	0	-6.7715	0.4619	-0.0508
  16	1	1	0	-8.0183	-0.4248	-0.0387
  17	1	1	0	-9.2697	0.4544	-0.083
  18	1	1	0	-10.5166	-0.4323	-0.0709
  19	1	3	0	11.2561	-0.8534	-0.7051
  20	1	3	0	10.2475	0.4887	-1.5301
  21	1	3	0	9.5739	-1.0836	0.977
  22	1	3	0	8.2049	1.1643	1.0114
  23	1	3	0	8.228	1.1075	-0.7675
  24	1	3	0	6.9844	-1.0371	-0.7152
  25	1	3	0	6.9614	-0.9804	1.0637
  26	1	3	0	5.7067	1.1568	0.9793
  27	1	3	0	5.7297	1.1	-0.7997
  28	1	3	0	4.4862	-1.0446	-0.7474
  29	1	3	0	4.4631	-0.9879	1.0315
  30	1	3	0	3.2084	1.1493	0.9471
  31	1	3	0	3.2315	1.0925	-0.8318
  32	1	3	0	1.9879	-1.0521	-0.7795
  33	1	3	0	1.9648	-0.9954	0.9994
  34	1	3	0	0.7102	1.1417	0.915
  35	1	3	0	0.7332	1.085	-0.8639
  36	1	3	0	-0.5104	-1.0596	-0.8117
  37	1	3	0	-0.5334	-1.0029	0.9673
  38	1	3	0	-1.7881	1.1342	0.8828
  39	1	3	0	-1.765	1.0775	-0.8961
  40	1	3	0	-3.0086	-1.0671	-0.8438
  41	1	3	0	-3.0317	-1.0104	0.9351
  42	1	3	0	-4.2864	1.1267	0.8507
  43	1	3	0	-4.2633	1.07	-0.9282
  44	1	3	0	-5.5069	-1.0746	-0.8759
  45	1	3	0	-5.5299	-1.0179	0.903
  46	1	3	0	-6.7846	1.1192	0.8185
  47	1	3	0	-6.7616	1.0625	-0.9604
  48	1	3	0	-8.0051	-1.0821	-0.9081
  49	1	3	0	-8.0282	-1.0254	0.8708
  50	1	3	0	-9.2829	1.1117	0.7864
  51	1	3	0	-9.2598	1.055	-0.9925
  52	1	3	0	-11.4081	0.194	-0.1024
  53	1	3	0	-10.5034	-1.0897	-0.9402
  54	1	3	0	-10.5265	-1.0329	0.8387

Velocities

   1	0.0	0.0	0.0
   2	0.0	0.0	0.0
   3	0.0	0.0	0.0
   4	0.0	0.0	0.0
   5	0.0	0.0	0.0
   6	0.0	0.0	0.0
   7	0.0	0.0	0.0
   8	0.0	0.0	0.0
   9	0.0	0.0	0.0
  10	0.0	0.0	0.0
  11	0.0	0.0	0.0
  12	0.0	0.0	0.0
  13	0.0	0.0	0.0
  14	0.0	0.0	0.0
  15	0.0	0.0	0.0
  16	0.0	0.0	0.0
  17	0.0	0.0	0.0
  18	0.0	0.0	0.0
  19	0.0	0.0	0.0
  20	0.0	0.0	0.0
  21	0.0	0.0	0.0
  22	0.0	0.0	0.0
  23	0.0	0.0	0.0
  24	0.0	0.0	0.0
  25	0.0	0.0	0.0
  26	0.0	0.0	0.0
  27	0.0	0.0	0.0
  28	0.0	0.0	0.0
  29	0.0	0.0	0.0
  30	0.0	0.0	0.0
  31	0.0	0.0	0.0
  32	0.0	0.0	0.0
  33	0.0	0.0	0.0
  34	0.0	0.0	0.0
  35	0.0	0.0	0.0
  36	0.0	0.0	0.0
  37	0.0	0.0	0.0
  38	0.0	0.0	0.0
  39	0.0	0.0	0.0
  40	0.0	0.0	0.0
  41	0.0	0.0	0.0
  42	0.0	0.0	0.0
  43	0.0	0.0	0.0
  44	0.0	0.0	0.0
  45	0.0	0.0	0.0
  46	0.0	0.0	0.0
  47	0.0	0.0	0.0
  48	0.0	0.0	0.0
  49	0.0	0.0	0.0
  50	0.0	0.0	0.0
  51	0.0	0.0	0.0
  52	0.0	0.0	0.0
  53	0.0	0.0	0.0
  54	0.0	0.0	0.0

Bonds

   1	1	1	19
   2	2	1	2
   3	1	2	21
   4	5	3	4
   5	3	3	2
   6	4	3	22
   7	4	4	25
   8	5	5	6
   9	5	5	4
  10	4	5	26
  11	4	6	29
  12	5	7	8
  13	5	7	6
  14	4	7	30
  15	4	8	33
  16	5	9	10
  17	5	9	8
  18	4	9	34
  19	4	10	37
  20	5	11	12
  21	5	11	10
  22	4	11	38
  23	4	12	41
  24	5	13	14
  25	5	13	12
  26	4	13	42
  27	4	14	45
  28	5	15	16
  29	5	15	14
  30	4	15	46
  31	4	16	49
  32	5	17	18
  33	5	17	16
  34	4	17	50
  35	4	18	54
  36	1	20	1
  37	4	23	3
  38	4	24	4
  39	4	27	5
  40	4	28	6
  41	4	31	7
  42	4	32	8
  43	4	35	9
  44	4	36	10
  45	4	39	11
  46	4	40	12
  47	4	43	13
  48	4	44	14
  49	4	47	15
  50	4	48	16
  51	4	51	17
  52	4	52	18
  53	4	53	18

Angles

   1	1	19	1	2
   2	7	19	1	20
   3	1	2	1	20
   4	1	1	2	21
   5	9	1	2	3
   6	6	21	2	3
   7	8	4	3	2
   8	2	4	3	22
   9	2	4	3	23
  10	3	2	3	22
  11	3	2	3	23
  12	4	22	3	23
  13	2	3	4	25
  14	5	3	4	5
  15	2	3	4	24
  16	2	25	4	5
  17	4	25	4	24
  18	2	5	4	24
  19	5	6	5	4
  20	2	6	5	26
  21	2	6	5	27
  22	2	4	5	26
  23	2	4	5	27
  24	4	26	5	27
  25	2	5	6	29
  26	5	5	6	7
  27	2	5	6	28
  28	2	29	6	7
  29	4	29	6	28
  30	2	7	6	28
  31	5	8	7	6
  32	2	8	7	30
  33	2	8	7	31
  34	2	6	7	30
  35	2	6	7	31
  36	4	30	7	31
  37	2	7	8	33
  38	5	7	8	9
  39	2	7	8	32
  40	2	33	8	9
  41	4	33	8	32
  42	2	9	8	32
  43	5	10	9	8
  44	2	10	9	34
  45	2	10	9	35
  46	2	8	9	34
  47	2	8	9	35
  48	4	34	9	35
  49	2	9	10	37
  50	5	9	10	11
  51	2	9	10	36
  52	2	37	10	11
  53	4	37	10	36
  54	2	11	10	36
  55	5	12	11	10
  56	2	12	11	38
  57	2	12	11	39
  58	2	10	11	38
  59	2	10	11	39
  60	4	38	11	39
  61	2	11	12	41
  62	5	11	12	13
  63	2	11	12	40
  64	2	41	12	13
  65	4	41	12	40
  66	2	13	12	40
  67	5	14	13	12
  68	2	14	13	42
  69	2	14	13	43
  70	2	12	13	42
  71	2	12	13	43
  72	4	42	13	43
  73	2	13	14	45
  74	5	13	14	15
  75	2	13	14	44
  76	2	45	14	15
  77	4	45	14	44
  78	2	15	14	44
  79	5	16	15	14
  80	2	16	15	46
  81	2	16	15	47
  82	2	14	15	46
  83	2	14	15	47
  84	4	46	15	47
  85	2	15	16	49
  86	5	15	16	17
  87	2	15	16	48
  88	2	49	16	17
  89	4	49	16	48
  90	2	17	16	48
  91	5	18	17	16
  92	2	18	17	50
  93	2	18	17	51
  94	2	16	17	50
  95	2	16	17	51
  96	4	50	17	51
  97	2	17	18	54
  98	2	17	18	52
  99	2	17	18	53
 100	4	54	18	52
 101	4	54	18	53
 102	4	52	18	53

Dihedrals

   1	1	19	1	2	21
   2	1	19	1	2	3
   3	1	20	1	2	21
   4	1	20	1	2	3
   5	2	2	3	4	25
   6	2	2	3	4	5
   7	2	2	3	4	24
   8	7	22	3	4	25
   9	5	22	3	4	5
  10	7	22	3	4	24
  11	7	23	3	4	25
  12	5	23	3	4	5
  13	7	23	3	4	24
  14	4	4	3	2	1
  15	4	4	3	2	21
  16	6	22	3	2	1
  17	4	22	3	2	21
  18	6	23	3	2	1
  19	4	23	3	2	21
  20	5	4	5	6	29
  21	3	4	5	6	7
  22	5	4	5	6	28
  23	7	26	5	6	29
  24	5	26	5	6	7
  25	7	26	5	6	28
  26	7	27	5	6	29
  27	5	27	5	6	7
  28	7	27	5	6	28
  29	3	6	5	4	3
  30	5	6	5	4	25
  31	5	6	5	4	24
  32	5	26	5	4	3
  33	7	26	5	4	25
  34	7	26	5	4	24
  35	5	27	5	4	3
  36	7	27	5	4	25
  37	7	27	5	4	24
  38	5	6	7	8	33
  39	3	6	7	8	9
  40	5	6	7	8	32
  41	7	30	7	8	33
  42	5	30	7	8	9
  43	7	30	7	8	32
  44	7	31	7	8	33
  45	5	31	7	8	9
  46	7	31	7	8	32
  47	3	8	7	6	5
  48	5	8	7	6	29
  49	5	8	7	6	28
  50	5	30	7	6	5
  51	7	30	7	6	29
  52	7	30	7	6	28
  53	5	31	7	6	5
  54	7	31	7	6	29
  55	7	31	7	6	28
  56	5	8	9	10	37
  57	3	8	9	10	11
  58	5	8	9	10	36
  59	7	34	9	10	37
  60	5	34	9	10	11
  61	7	34	9	10	36
  62	7	35	9	10	37
  63	5	35	9	10	11
  64	7	35	9	10	36
  65	3	10	9	8	7
  66	5	10	9	8	33
  67	5	10	9	8	32
  68	5	34	9	8	7
  69	7	34	9	8	33
  70	7	34	9	8	32
  71	5	35	9	8	7
  72	7	35	9	8	33
  73	7	35	9	8	32
  74	5	10	11	12	41
  75	3	10	11	12	13
  76	5	10	11	12	40
  77	7	38	11	12	41
  78	5	38	11	12	13
  79	7	38	11	12	40
  80	7	39	11	12	41
  81	5	39	11	12	13
  82	7	39	11	12	40
  83	3	12	11	10	9
  84	5	12	11	10	37
  85	5	12	11	10	36
  86	5	38	11	10	9
  87	7	38	11	10	37
  88	7	38	11	10	36
  89	5	39	11	10	9
  90	7	39	11	10	37
  91	7	39	11	10	36
  92	5	12	13	14	45
  93	3	12	13	14	15
  94	5	12	13	14	44
  95	7	42	13	14	45
  96	5	42	13	14	15
  97	7	42	13	14	44
  98	7	43	13	14	45
  99	5	43	13	14	15
 100	7	43	13	14	44
 101	3	14	13	12	11
 102	5	14	13	12	41
 103	5	14	13	12	40
 104	5	42	13	12	11
 105	7	42	13	12	41
 106	7	42	13	12	40
 107	5	43	13	12	11
 108	7	43	13	12	41
 109	7	43	13	12	40
 110	5	14	15	16	49
 111	3	14	15	16	17
 112	5	14	15	16	48
 113	7	46	15	16	49
 114	5	46	15	16	17
 115	7	46	15	16	48
 116	7	47	15	16	49
 117	5	47	15	16	17
 118	7	47	15	16	48
 119	3	16	15	14	13
 120	5	16	15	14	45
 121	5	16	15	14	44
 122	5	46	15	14	13
 123	7	46	15	14	45
 124	7	46	15	14	44
 125	5	47	15	14	13
 126	7	47	15	14	45
 127	7	47	15	14	44
 128	5	16	17	18	54
 129	5	16	17	18	52
 130	5	16	17	18	53
 131	7	50	17	18	54
 132	7	50	17	18	52
 133	7	50	17	18	53
 134	7	51	17	18	54
 135	7	51	17	18	52
 136	7	51	17	18	53
 137	3	18	17	16	15
 138	5	18	17	16	49
 139	5	18	17	16	48
 140	5	50	17	16	15
 141	7	50	17	16	49
 142	7	50	17	16	48
 143	5	51	17	16	15
 144	7	51	17	16	49
 145	7	51	17	16	48

Impropers

   1	1	2	1	21	3

