read using pysimm.system.read_mol

18 atoms
17 bonds
16 angles
15 dihedrals

4 atom types
2 bond types
2 angle types
2 dihedral types

-21.408100 21.256100 xlo xhi
-11.089700 11.164300 ylo yhi
-11.530100 11.063700 zlo zhi

Masses

   1	15.01
   2	14.01
   3	13.01
   4	14.01

Pair Coeffs

   1	0.1947	3.75	# CH3
   2	0.0914	3.95	# CH2
   3	0.0934	3.73	# CH
   4	0.1689	3.675	# [CH2]=CH

Bond Coeffs

   1	500	1.54
   2	500	1.33

Angle Coeffs

   1	124.19	114
   2	139.93	119.7

Dihedral Coeffs

   1	3	0.7055	1 0 0.1355 2 180 1.572 3 0
   2    4   0.684   0 0 0.1716	1 0 0.2181 2 180 0.5608 3 180


Atoms

   1	1	4	0	10.3728	-0.2328	-0.7363
   2	1	3	0	9.4507	-0.359	0.1856
   3	1	2	0	8.2181	0.5069	0.142
   4	1	2	0	6.9713	-0.3797	0.1542
   5	1	2	0	5.7198	0.4994	0.1099
   6	1	2	0	4.473	-0.3872	0.122
   7	1	2	0	3.2216	0.4919	0.0777
   8	1	2	0	1.9747	-0.3948	0.0899
   9	1	2	0	0.7233	0.4844	0.0456
  10	1	2	0	-0.5235	-0.4023	0.0577
  11	1	2	0	-1.7749	0.4769	0.0134
  12	1	2	0	-3.0218	-0.4098	0.0256
  13	1	2	0	-4.2732	0.4694	-0.0187
  14	1	2	0	-5.52	-0.4173	-0.0066
  15	1	2	0	-6.7715	0.4619	-0.0508
  16	1	2	0	-8.0183	-0.4248	-0.0387
  17	1	2	0	-9.2697	0.4544	-0.083
  18	1	1	0	-10.5166	-0.4323	-0.0709

Bonds

   1	2	1	2
   2	1	2	3
   3	1	3	4
   4	1	4	5
   5	1	5	6
   6	1	6	7
   7	1	7	8
   8	1	8	9
   9	1	9	10
  10	1	10	11
  11	1	11	12
  12	1	12	13
  13	1	13	14
  14	1	14	15
  15	1	15	16
  16	1	16	17
  17	1	17	18

Angles

   1	2	1	2	3
   2	1	2	3	4
   3	1	3	4	5
   4	1	4	5	6
   5	1	5	6	7
   6	1	6	7	8
   7	1	7	8	9
   8	1	8	9	10
   9	1	9	10	11
  10	1	10	11	12
  11	1	11	12	13
  12	1	12	13	14
  13	1	13	14	15
  14	1	14	15	16
  15	1	15	16	17
  16	1	16	17	18

Dihedrals

   1	2	1	2	3   4
   2	1	2	3	4   5
   3	1	3	4	5   6
   4	1	4	5	6   7
   5	1	5	6	7   8
   6	1	6	7	8   9
   7	1	7	8	9   10
   8	1	8	9	10  11
   9	1	9	10	11  12
  10	1	10	11	12  13
  11	1	11	12	13  14
  12	1	12	13	14  15
  13	1	13	14	15  16
  14	1	14	15	16  17
  15	1	15	16	17  18