read using pysimm.system.read_mol

22 atoms
24 bonds
21 angles
36 dihedrals

4 atom types
4 bond types
4 angle types
4 dihedral types

-16.276800 14.950900 xlo xhi
-14.370300 14.467400 ylo yhi
-11.877500 11.763600 zlo zhi

Masses

   1	16.0	# os
   2	13.01	# c2
   3	12.01	# c
   4	30.97	# p4

Pair Coeffs

   1	0.0726	3.156097798883966	# os
   2	0.1003	3.695	# c2 from TraPPE
   3	0.0988	3.3152123099438304	# c
   4	0.2295	3.6940224448971026	# p4

Bond Coeffs

   1	323.7	1.636	# os,p4
   2	368.17	1.406	# c,c2
   3	372.94	1.358	# c,os
   4	500  	1.4	# c2,c2

Angle Coeffs

   1	69.337	116.78	# c2,c,c2
   2	500	    120	 # c2,c2,c2
   3	83.473	100.34	# os,p4,os
   4	69.891	120.7	# c,c2,c2

Dihedral Coeffs

   1	1	1.05	2	180	# X,os,p4,X
   2	1	6.65	2	180	# X,c2,c2,X
   3	1	2.175	2	180	# X,c,c2,X
   4	1	2.7	2	180	# X,c,os,X

Atoms

   1	1	4	0	-0.4134	-0.4503	0.2047
   2	1	1	0	0.8434	-0.6969	1.1803
   3	1	3	0	1.8949	-1.3155	0.5816
   4	1	2	0	3.0129	-0.5826	0.2107
   5	1	2	0	4.0804	-1.2138	-0.3978
   6	1	2	0	4.0354	-2.5748	-0.6373
   7	1	2	0	2.9221	-3.3074	-0.269
   8	1	2	0	1.8545	-2.682	0.3454
   9	1	1	0	-0.005	0.6055	-0.9402
  10	1	3	0	0.7943	1.6138	-0.5026
  11	1	2	0	2.0399	1.8134	-1.0799
  12	1	2	0	2.8505	2.839	-0.6333
  13	1	2	0	2.4213	3.6662	0.3881
  14	1	2	0	1.1805	3.469	0.9654
  15	1	2	0	0.3636	2.4486	0.5182
  16	1	1	0	-1.6482	0.1335	1.0571
  17	1	3	0	-2.8566	-0.0171	0.4539
  18	1	2	0	-3.6703	-1.0904	0.7863
  19	1	2	0	-4.8982	-1.2413	0.1716
  20	1	2	0	-5.3164	-0.3236	-0.7743
  21	1	2	0	-4.5072	0.7467	-1.1077
  22	1	2	0	-3.281	0.9054	-0.4914


Bonds

   1	1	1	16
   2	1	1	2
   3	3	3	2
   4	2	4	3
   5	4	5	4
   6	4	6	5
   7	4	6	7
   8	4	7	8
   9	2	8	3
  10	3	9	10
  11	1	9	1
  12	2	10	15
  13	4	11	12
  14	2	11	10
  15	4	12	13
  16	4	13	14
  17	4	15	14
  18	2	17	18
  19	3	17	16
  20	4	19	18
  21	4	20	19
  22	4	21	20
  23	4	21	22
  24	2	22	17

Angles

   1	3	16	1	2
   2	3	16	1	9
   3	3	2	1	9
   4	1	4	3	8
   5	4	3	4	5
   6	2	4	5	6
   7	2	5	6	7
   8	2	6	7	8
   9	4	7	8	3
  10	1	15	10	11
  11	4	12	11	10
  12	2	11	12	13
  13	2	12	13	14
  14	2	13	14	15
  15	4	10	15	14
  16	1	18	17	22
  17	4	17	18	19
  18	2	18	19	20
  19	2	19	20	21
  20	2	20	21	22
  21	4	21	22	17

Dihedrals

   1	1	2	1	16	17
   2	1	9	1	16	17
   3	1	16	1	2	3
   4	1	9	1	2	3
   5	4	4	3	2	1
   6	4	8	3	2	1
   7	3	5	4	3	2
   8	3	5	4	3	8
   9	2	6	5	4	3
  10	2	7	6	5	4
  11	2	5	6	7	8
  12	2	6	7	8	3
  13	3	7	8	3	2
  14	3	7	8	3	4
  15	4	1	9	10	15
  16	4	1	9	10	11
  17	1	10	9	1	16
  18	1	10	9	1	2
  19	3	9	10	15	14
  20	3	11	10	15	14
  21	2	10	11	12	13
  22	3	12	11	10	9
  23	3	12	11	10	15
  24	2	11	12	13	14
  25	2	12	13	14	15
  26	2	10	15	14	13
  27	3	16	17	18	19
  28	3	22	17	18	19
  29	4	18	17	16	1
  30	4	22	17	16	1
  31	2	20	19	18	17
  32	2	21	20	19	18
  33	2	22	21	20	19
  34	2	20	21	22	17
  35	3	21	22	17	18
  36	3	21	22	17	16