read using pysimm.system.read_mol https://pubs.acs.org/doi/10.1021/acs.jctc.5b00295   https://www.ncbi.nlm.nih.gov/pmc/articles/PMC6761742/#tbl1

4 atoms
3 bonds
2 angles
1 dihedrals

2 atom types
1 bond types
1 angle types
1 dihedral types

-21.408100 21.256100 xlo xhi
-11.089700 11.164300 ylo yhi
-11.530100 11.063700 zlo zhi

Masses

   1	57.116 # CH3-CH2-CH2-CH2
   2	56.108 # CH2-CH2-CH2-CH2

Pair Coeffs

   1	0.7753	5
   2	0.8221	4.737

Bond Coeffs

   1	500	4.63

Angle Coeffs

   1	11.488	153.8

Dihedral Coeffs

   1	0.2866 -1 1


Atoms

   1	1	1	0	9.37300   -0.35430   -0.00000
   2	1	2	0	4.37630   -0.40090   -0.00000
   3	1	2	0	-0.62050   -0.44750    0.00000
   4	1	1	0	-5.61720   -0.49410    0.00000

Bonds

   1	1	1	2
   2	1	2	3
   3	1	3	4

Angles

   1	1	1	2	3
   2	1	2	3	4


Dihedrals

   1	1	1	2	3   4
