read using pysimm.system.read_mol

37 atoms
39 bonds
51 angles
84 dihedrals
0 impropers

5 atom types
5 bond types
6 angle types
4 dihedral types

-16.276800 14.950900 xlo xhi
-14.370300 14.467400 ylo yhi
-11.877500 11.763600 zlo zhi

Masses

   1	16.0	# os
   2	12.01	# c2
   3	1.008	# hc
   4	12.01	# c
   5	30.97	# p4

Pair Coeffs

   1	0.0726	3.156097798883966	# os
   2	0.0988	3.3152123099438304	# c2
   3	0.0208	2.600176998764394	# hc
   4	0.0988	3.3152123099438304	# c
   5	0.2295	3.6940224448971026	# p4

Bond Coeffs

   1	323.7	1.636	# os,p4
   2	368.17	1.406	# c,c2
   3	372.94	1.358	# c,os
   4	393.86	1.087	# c2,hc
   5	481.83	1.334	# c2,c2

Angle Coeffs

   1	69.337	116.78	# c2,c,c2
   2	71.539	121.81	# c2,c2,c2
   3	50.527	119.7	# c2,c2,hc
   4	83.473	100.34	# os,p4,os
   5	48.494	119.7	# c,c2,hc
   6	69.891	120.7	# c,c2,c2

Dihedral Coeffs

   1	1	1.05	2	180	# X,os,p4,X
   2	1	6.65	2	180	# X,c2,c2,X
   3	1	2.175	2	180	# X,c,c2,X
   4	1	2.7	2	180	# X,c,os,X

Atoms

   1	1	5	0	-0.4134	-0.4503	0.2047
   2	1	3	0	-2.6493	1.7416	-0.7522
   3	1	1	0	0.8434	-0.6969	1.1803
   4	1	4	0	1.8949	-1.3155	0.5816
   5	1	2	0	3.0129	-0.5826	0.2107
   6	1	2	0	4.0804	-1.2138	-0.3978
   7	1	2	0	4.0354	-2.5748	-0.6373
   8	1	2	0	2.9221	-3.3074	-0.269
   9	1	2	0	1.8545	-2.682	0.3454
  10	1	1	0	-0.005	0.6055	-0.9402
  11	1	4	0	0.7943	1.6138	-0.5026
  12	1	2	0	2.0399	1.8134	-1.0799
  13	1	2	0	2.8505	2.839	-0.6333
  14	1	2	0	2.4213	3.6662	0.3881
  15	1	2	0	1.1805	3.469	0.9654
  16	1	2	0	0.3636	2.4486	0.5182
  17	1	1	0	-1.6482	0.1335	1.0571
  18	1	4	0	-2.8566	-0.0171	0.4539
  19	1	2	0	-3.6703	-1.0904	0.7863
  20	1	2	0	-4.8982	-1.2413	0.1716
  21	1	2	0	-5.3164	-0.3236	-0.7743
  22	1	2	0	-4.5072	0.7467	-1.1077
  23	1	2	0	-3.281	0.9054	-0.4914
  24	1	3	0	3.0484	0.4806	0.3971
  25	1	3	0	4.9509	-0.6436	-0.6871
  26	1	3	0	4.871	-3.0664	-1.1131
  27	1	3	0	2.889	-4.3703	-0.4577
  28	1	3	0	0.9851	-3.2546	0.6329
  29	1	3	0	2.3757	1.1674	-1.8775
  30	1	3	0	3.8204	2.9946	-1.0821
  31	1	3	0	3.0565	4.4674	0.7359
  32	1	3	0	0.8478	4.116	1.7636
  33	1	3	0	-0.6056	2.295	0.9694
  34	1	3	0	-3.3438	-1.8077	1.5249
  35	1	3	0	-5.5318	-2.0769	0.4299
  36	1	3	0	-6.2768	-0.4433	-1.2537
  37	1	3	0	-4.8358	1.4617	-1.8474

Bonds

   1	1	1	17
   2	1	1	3
   3	4	2	23
   4	3	4	3
   5	4	5	24
   6	2	5	4
   7	5	6	5
   8	5	7	6
   9	5	7	8
  10	5	8	9
  11	2	9	4
  12	4	9	28
  13	3	10	11
  14	1	10	1
  15	2	11	16
  16	5	12	13
  17	2	12	11
  18	5	13	14
  19	4	14	31
  20	5	14	15
  21	4	15	32
  22	5	16	15
  23	4	16	33
  24	2	18	19
  25	3	18	17
  26	4	19	34
  27	4	20	35
  28	5	20	19
  29	5	21	20
  30	5	22	21
  31	5	22	23
  32	2	23	18
  33	4	25	6
  34	4	26	7
  35	4	27	8
  36	4	29	12
  37	4	30	13
  38	4	36	21
  39	4	37	22

Angles

   1	4	17	1	3
   2	4	17	1	10
   3	4	3	1	10
   4	1	5	4	9
   5	5	24	5	4
   6	3	24	5	6
   7	6	4	5	6
   8	2	5	6	7
   9	3	5	6	25
  10	3	7	6	25
  11	2	6	7	8
  12	3	6	7	26
  13	3	8	7	26
  14	2	7	8	9
  15	3	7	8	27
  16	3	9	8	27
  17	6	8	9	4
  18	3	8	9	28
  19	5	4	9	28
  20	1	16	11	12
  21	6	13	12	11
  22	3	13	12	29
  23	5	11	12	29
  24	2	12	13	14
  25	3	12	13	30
  26	3	14	13	30
  27	3	13	14	31
  28	2	13	14	15
  29	3	31	14	15
  30	3	14	15	32
  31	2	14	15	16
  32	3	32	15	16
  33	6	11	16	15
  34	5	11	16	33
  35	3	15	16	33
  36	1	19	18	23
  37	5	18	19	34
  38	6	18	19	20
  39	3	34	19	20
  40	3	35	20	19
  41	3	35	20	21
  42	2	19	20	21
  43	2	20	21	22
  44	3	20	21	36
  45	3	22	21	36
  46	2	21	22	23
  47	3	21	22	37
  48	3	23	22	37
  49	3	2	23	22
  50	5	2	23	18
  51	6	22	23	18

Dihedrals

   1	1	3	1	17	18
   2	1	10	1	17	18
   3	1	17	1	3	4
   4	1	10	1	3	4
   5	4	5	4	3	1
   6	4	9	4	3	1
   7	3	24	5	4	3
   8	3	24	5	4	9
   9	3	6	5	4	3
  10	3	6	5	4	9
  11	2	7	6	5	24
  12	2	7	6	5	4
  13	2	25	6	5	24
  14	2	25	6	5	4
  15	2	8	7	6	5
  16	2	8	7	6	25
  17	2	26	7	6	5
  18	2	26	7	6	25
  19	2	6	7	8	9
  20	2	6	7	8	27
  21	2	26	7	8	9
  22	2	26	7	8	27
  23	2	7	8	9	4
  24	2	7	8	9	28
  25	2	27	8	9	4
  26	2	27	8	9	28
  27	3	8	9	4	3
  28	3	8	9	4	5
  29	3	28	9	4	3
  30	3	28	9	4	5
  31	4	1	10	11	16
  32	4	1	10	11	12
  33	1	11	10	1	17
  34	1	11	10	1	3
  35	3	10	11	16	15
  36	3	10	11	16	33
  37	3	12	11	16	15
  38	3	12	11	16	33
  39	2	11	12	13	14
  40	2	11	12	13	30
  41	2	29	12	13	14
  42	2	29	12	13	30
  43	3	13	12	11	10
  44	3	13	12	11	16
  45	3	29	12	11	10
  46	3	29	12	11	16
  47	2	12	13	14	31
  48	2	12	13	14	15
  49	2	30	13	14	31
  50	2	30	13	14	15
  51	2	13	14	15	32
  52	2	13	14	15	16
  53	2	31	14	15	32
  54	2	31	14	15	16
  55	2	11	16	15	14
  56	2	11	16	15	32
  57	2	33	16	15	14
  58	2	33	16	15	32
  59	3	17	18	19	34
  60	3	17	18	19	20
  61	3	23	18	19	34
  62	3	23	18	19	20
  63	4	19	18	17	1
  64	4	23	18	17	1
  65	2	35	20	19	18
  66	2	35	20	19	34
  67	2	21	20	19	18
  68	2	21	20	19	34
  69	2	22	21	20	35
  70	2	22	21	20	19
  71	2	36	21	20	35
  72	2	36	21	20	19
  73	2	23	22	21	20
  74	2	23	22	21	36
  75	2	37	22	21	20
  76	2	37	22	21	36
  77	2	21	22	23	2
  78	2	21	22	23	18
  79	2	37	22	23	2
  80	2	37	22	23	18
  81	3	2	23	18	19
  82	3	2	23	18	17
  83	3	22	23	18	19
  84	3	22	23	18	17

